TITLE = "005.01"

VARIABLES = "GRID_LEVEL" "GRID_SIZE" "GRID_FAC" "MACH" "REY" "ALPHA"  "CL_TOT" "CD_TOT" "CM_TOT" "CL_WING" "CD_WING" "CM_WING" "CD_PR" "CD_SF" "CL_TAIL" "CD_TAIL" "CM_TAIL" "CL_FUS" "CD_FUS" "CM_FUS" "CL_NAC" "CD_NAC" "CM_NAC" "CL_PY" "CD_PY" "CM_PY" "CPU_Hours" "DELTAT" "CTUSTART" "CTUAVG" "Q/E"

DATASETAUXDATA ParticipantID   = "005"
DATASETAUXDATA SubmissionDate  = "05-01-2026"
DATASETAUXDATA Name            = "Jeffrey A. Housman"
DATASETAUXDATA Email           = "jeffrey.a.housman@nasa.gov"
DATASETAUXDATA Institution     = "NASA Ames Research Center"
DATASETAUXDATA SolverName      = "LAVA Curvilinear"
DATASETAUXDATA BasicAlgorithm  = "RANS"
DATASETAUXDATA TurbulenceModel = "SA-neg-QCR2000"
DATASETAUXDATA GridId          = "Multiblock/Overset"
DATASETAUXDATA Discretization  = "Finite difference"
DATASETAUXDATA Order           = "2"
DATASETAUXDATA DistanceCalc    = "Exact"
DATASETAUXDATA Notes           = "Data for configuration: FuseWingSting"

ZONE T="005.01 GRID LEVEL 1"
AUXDATA Tstatic         = "322.04 K"
AUXDATA Deltat          = "N/A"
AUXDATA GridFileName    = "grid_R1_0_A-1_50.x, grid_R1_0_A2_50.x, ..., grid_R1_0_A4_25.x"
AUXDATA Misc            = "Different grid used for each alpha to match wing deflection"

1 21592302 1.2896e-05 0.85 5000000.0 -1.50 -0.013975 0.014056 -0.040455 -0.008881 0.007839 -0.009912 0.002725 0.011331 -999 -999 -999 -0.005094 0.006217 -0.030543 -999 -999 -999 -999 -999 -999 -999 -999 -999 -999 7.8e+04
1 21592302 1.2896e-05 0.85 5000000.0 2.50 0.489654 0.023013 -0.082521 0.429726 0.014622 -0.128785 0.011795 0.011218 -999 -999 -999 0.059928 0.008391 0.046264 -999 -999 -999 -999 -999 -999 -999 -999 -999 -999 7.8e+04
1 21592302 1.2896e-05 0.85 5000000.0 2.75 0.523612 0.024936 -0.085333 0.459129 0.016116 -0.136263 0.013782 0.011155 -999 -999 -999 0.064483 0.008820 0.050930 -999 -999 -999 -999 -999 -999 -999 -999 -999 -999 7.8e+04
1 21592302 1.2896e-05 0.85 5000000.0 3.00 0.557283 0.027278 -0.088497 0.488228 0.017985 -0.144006 0.016197 0.011082 -999 -999 -999 0.069055 0.009293 0.055508 -999 -999 -999 -999 -999 -999 -999 -999 -999 -999 7.8e+04
1 21592302 1.2896e-05 0.85 5000000.0 3.25 0.588608 0.030046 -0.090791 0.515134 0.020251 -0.150837 0.019048 0.010998 -999 -999 -999 0.073474 0.009796 0.060047 -999 -999 -999 -999 -999 -999 -999 -999 -999 -999 7.8e+04
1 21592302 1.2896e-05 0.85 5000000.0 3.50 0.615908 0.033328 -0.090634 0.538182 0.022995 -0.155137 0.022421 0.010906 -999 -999 -999 0.077725 0.010333 0.064503 -999 -999 -999 -999 -999 -999 -999 -999 -999 -999 7.8e+04
1 21592302 1.2896e-05 0.85 5000000.0 3.75 0.637306 0.037038 -0.086534 0.555603 0.026138 -0.155433 0.026221 0.010816 -999 -999 -999 0.081704 0.010899 0.068898 -999 -999 -999 -999 -999 -999 -999 -999 -999 -999 7.8e+04
1 21592302 1.2896e-05 0.85 5000000.0 4.00 0.655819 0.041076 -0.080610 0.570260 0.029577 -0.153855 0.030343 0.010733 -999 -999 -999 0.085559 0.011498 0.073245 -999 -999 -999 -999 -999 -999 -999 -999 -999 -999 7.8e+04
1 21592302 1.2896e-05 0.85 5000000.0 4.25 0.672773 0.045349 -0.073753 0.583450 0.033224 -0.151322 0.034695 0.010654 -999 -999 -999 0.089323 0.012125 0.077568 -999 -999 -999 -999 -999 -999 -999 -999 -999 -999 7.8e+04
ZONE T="005.01 GRID LEVEL 2"
AUXDATA Tstatic         = "322.04 K"
AUXDATA Deltat          = "N/A"
AUXDATA GridFileName    = "grid_R1_0_A-1_50.x, grid_R1_0_A2_50.x, ..., grid_R1_0_A4_25.x"
AUXDATA Misc            = "Different grid used for each alpha to match wing deflection"

2 59989766 6.5255e-06 0.85 5000000.0 -1.50 -0.014187 0.013893 -0.040537 -0.009068 0.007779 -0.009848 0.002532 0.011361 -999 -999 -999 -0.005119 0.006114 -0.030689 -999 -999 -999 -999 -999 -999 -999 -999 -999 -999 7.8e+04
2 59989766 6.5255e-06 0.85 5000000.0 2.50 0.489406 0.022848 -0.082223 0.429481 0.014538 -0.128414 0.011595 0.011253 -999 -999 -999 0.059925 0.008310 0.046192 -999 -999 -999 -999 -999 -999 -999 -999 -999 -999 7.8e+04
2 59989766 6.5255e-06 0.85 5000000.0 2.75 0.523632 0.024777 -0.085247 0.459150 0.016037 -0.136111 0.013585 0.011192 -999 -999 -999 0.064482 0.008741 0.050864 -999 -999 -999 -999 -999 -999 -999 -999 -999 -999 7.8e+04
2 59989766 6.5255e-06 0.85 5000000.0 3.00 0.557950 0.027139 -0.088832 0.488851 0.017921 -0.144281 0.016017 0.011122 -999 -999 -999 0.069099 0.009218 0.055449 -999 -999 -999 -999 -999 -999 -999 -999 -999 -999 7.8e+04
2 59989766 6.5255e-06 0.85 5000000.0 3.25 0.590220 0.029942 -0.091763 0.516634 0.020216 -0.151752 0.018901 0.011041 -999 -999 -999 0.073585 0.009725 0.059989 -999 -999 -999 -999 -999 -999 -999 -999 -999 -999 7.8e+04
2 59989766 6.5255e-06 0.85 5000000.0 3.50 0.617844 0.033237 -0.091904 0.539982 0.022971 -0.156348 0.022287 0.010950 -999 -999 -999 0.077862 0.010267 0.064444 -999 -999 -999 -999 -999 -999 -999 -999 -999 -999 7.8e+04
2 59989766 6.5255e-06 0.85 5000000.0 3.75 0.639031 0.036945 -0.087616 0.557202 0.026111 -0.156454 0.026084 0.010861 -999 -999 -999 0.081830 0.010834 0.068837 -999 -999 -999 -999 -999 -999 -999 -999 -999 -999 7.8e+04
2 59989766 6.5255e-06 0.85 5000000.0 4.00 0.656822 0.040965 -0.081125 0.571185 0.029533 -0.154308 0.030187 0.010778 -999 -999 -999 0.085637 0.011432 0.073184 -999 -999 -999 -999 -999 -999 -999 -999 -999 -999 7.8e+04
2 59989766 6.5255e-06 0.85 5000000.0 4.25 0.672716 0.045205 -0.073441 0.583358 0.033146 -0.150948 0.034506 0.010698 -999 -999 -999 0.089357 0.012059 0.077507 -999 -999 -999 -999 -999 -999 -999 -999 -999 -999 7.8e+04
ZONE T="005.01 GRID LEVEL 3"
AUXDATA Tstatic         = "322.04 K"
AUXDATA Deltat          = "N/A"
AUXDATA GridFileName    = "grid_R1_0_A-1_50.x, grid_R1_0_A2_50.x, ..., grid_R1_0_A4_25.x"
AUXDATA Misc            = "Different grid used for each alpha to match wing deflection"

3 167939359 3.2852e-06 0.85 5000000.0 -1.50 -0.014101 0.013818 -0.040525 -0.009129 0.007747 -0.009903 0.002437 0.011380 -999 -999 -999 -0.004972 0.006070 -0.030622 -999 -999 -999 -999 -999 -999 -999 -999 -999 -999 7.8e+04
3 167939359 3.2852e-06 0.85 5000000.0 2.50 0.489693 0.022792 -0.082213 0.429654 0.014516 -0.128443 0.011517 0.011276 -999 -999 -999 0.060039 0.008276 0.046230 -999 -999 -999 -999 -999 -999 -999 -999 -999 -999 7.8e+04
3 167939359 3.2852e-06 0.85 5000000.0 2.75 0.524253 0.024732 -0.085494 0.459633 0.016024 -0.136384 0.013516 0.011216 -999 -999 -999 0.064620 0.008708 0.050890 -999 -999 -999 -999 -999 -999 -999 -999 -999 -999 7.8e+04
3 167939359 3.2852e-06 0.85 5000000.0 3.00 0.559083 0.027109 -0.089492 0.489814 0.017922 -0.144954 0.015961 0.011148 -999 -999 -999 0.069269 0.009187 0.055462 -999 -999 -999 -999 -999 -999 -999 -999 -999 -999 7.8e+04
3 167939359 3.2852e-06 0.85 5000000.0 3.25 0.591756 0.029920 -0.092832 0.517989 0.020224 -0.152819 0.018852 0.011068 -999 -999 -999 0.073767 0.009696 0.059987 -999 -999 -999 -999 -999 -999 -999 -999 -999 -999 7.8e+04
3 167939359 3.2852e-06 0.85 5000000.0 3.50 0.619786 0.033221 -0.093338 0.541734 0.022983 -0.157775 0.022243 0.010978 -999 -999 -999 0.078051 0.010238 0.064437 -999 -999 -999 -999 -999 -999 -999 -999 -999 -999 7.8e+04
3 167939359 3.2852e-06 0.85 5000000.0 3.75 0.640966 0.036926 -0.089085 0.558937 0.026119 -0.157903 0.026038 0.010888 -999 -999 -999 0.082029 0.010807 0.068818 -999 -999 -999 -999 -999 -999 -999 -999 -999 -999 7.8e+04
3 167939359 3.2852e-06 0.85 5000000.0 4.00 0.658184 0.040941 -0.082081 0.572352 0.029535 -0.155230 0.030138 0.010803 -999 -999 -999 0.085832 0.011407 0.073148 -999 -999 -999 -999 -999 -999 -999 -999 -999 -999 7.8e+04
3 167939359 3.2852e-06 0.85 5000000.0 4.25 0.673606 0.045173 -0.074048 0.584072 0.033139 -0.151505 0.034450 0.010723 -999 -999 -999 0.089534 0.012034 0.077457 -999 -999 -999 -999 -999 -999 -999 -999 -999 -999 7.8e+04
